  12  12   0   0
  0.1786849E+03  0.1431332E-08  0.1498058E-08  0.1000000E-08  0.5000000E-15
   1.0000000000000000E-004
  CAR 
 CO                                      
      1.96428660    -22.01294535  301     -6.06808610      1.00000000
    -22.013  0.0000E+00  0.0000E+00
    -21.933  0.0000E+00  0.0000E+00
    -21.853  0.0000E+00  0.0000E+00
    -21.773  0.0000E+00  0.0000E+00
    -21.693  0.0000E+00  0.0000E+00
    -21.613  0.0000E+00  0.0000E+00
    -21.533  0.0000E+00  0.0000E+00
    -21.453  0.0000E+00  0.0000E+00
    -21.374  0.0000E+00  0.0000E+00
    -21.294  0.0000E+00  0.0000E+00
    -21.214  0.0000E+00  0.0000E+00
    -21.134  0.0000E+00  0.0000E+00
    -21.054  0.0000E+00  0.0000E+00
    -20.974  0.0000E+00  0.0000E+00
    -20.894  0.0000E+00  0.2000E-01
    -20.814  0.0000E+00  0.2000E-01
    -20.734  0.0000E+00  0.2000E-01
    -20.654  0.0000E+00  0.2000E-01
    -20.574  0.0000E+00  0.2000E-01
    -20.494  0.0000E+00  0.2000E-01
    -20.414  0.0000E+00  0.2000E-01
    -20.335  0.0000E+00  0.2000E-01
    -20.255  0.0000E+00  0.2000E-01
    -20.175  0.0000E+00  0.2000E-01
    -20.095  0.0000E+00  0.2000E-01
    -20.015  0.0000E+00  0.2000E-01
    -19.935  0.0000E+00  0.2000E-01
    -19.855  0.0000E+00  0.2000E-01
    -19.775  0.0000E+00  0.2000E-01
    -19.695  0.0000E+00  0.2000E-01
    -19.615  0.0000E+00  0.2000E-01
    -19.535  0.0000E+00  0.2000E-01
    -19.455  0.0000E+00  0.2000E-01
    -19.375  0.0000E+00  0.2000E-01
    -19.296  0.0000E+00  0.2000E-01
    -19.216  0.0000E+00  0.2000E-01
    -19.136  0.0000E+00  0.2000E-01
    -19.056  0.0000E+00  0.2000E-01
    -18.976  0.0000E+00  0.2000E-01
    -18.896  0.0000E+00  0.2000E-01
    -18.816  0.0000E+00  0.2000E-01
    -18.736  0.0000E+00  0.2000E-01
    -18.656  0.0000E+00  0.2000E-01
    -18.576  0.0000E+00  0.2000E-01
    -18.496  0.0000E+00  0.2000E-01
    -18.416  0.0000E+00  0.2000E-01
    -18.336  0.0000E+00  0.2000E-01
    -18.257  0.0000E+00  0.2000E-01
    -18.177  0.0000E+00  0.2000E-01
    -18.097  0.0000E+00  0.6000E-01
    -18.017  0.0000E+00  0.6000E-01
    -17.937  0.0000E+00  0.6000E-01
    -17.857  0.0000E+00  0.6000E-01
    -17.777  0.0000E+00  0.6000E-01
    -17.697  0.0000E+00  0.6000E-01
    -17.617  0.0000E+00  0.6000E-01
    -17.537  0.0000E+00  0.6000E-01
    -17.457  0.0000E+00  0.6000E-01
    -17.377  0.0000E+00  0.6000E-01
    -17.297  0.0000E+00  0.6000E-01
    -17.217  0.0000E+00  0.6000E-01
    -17.138  0.0000E+00  0.6000E-01
    -17.058  0.0000E+00  0.6000E-01
    -16.978  0.0000E+00  0.6000E-01
    -16.898  0.0000E+00  0.6000E-01
    -16.818  0.0000E+00  0.6000E-01
    -16.738  0.0000E+00  0.6000E-01
    -16.658  0.0000E+00  0.6000E-01
    -16.578  0.0000E+00  0.6000E-01
    -16.498  0.0000E+00  0.6000E-01
    -16.418  0.0000E+00  0.6000E-01
    -16.338  0.0000E+00  0.6000E-01
    -16.258  0.0000E+00  0.6000E-01
    -16.178  0.0000E+00  0.6000E-01
    -16.099  0.0000E+00  0.6000E-01
    -16.019  0.0000E+00  0.6000E-01
    -15.939  0.0000E+00  0.6000E-01
    -15.859  0.0000E+00  0.6000E-01
    -15.779  0.0000E+00  0.6000E-01
    -15.699  0.0000E+00  0.6000E-01
    -15.619  0.0000E+00  0.6000E-01
    -15.539  0.0000E+00  0.6000E-01
    -15.459  0.0000E+00  0.6000E-01
    -15.379  0.0000E+00  0.6000E-01
    -15.299  0.0000E+00  0.6000E-01
    -15.219  0.0000E+00  0.6000E-01
    -15.139  0.0000E+00  0.6000E-01
    -15.060  0.0000E+00  0.6000E-01
    -14.980  0.0000E+00  0.6000E-01
    -14.900  0.0000E+00  0.6000E-01
    -14.820  0.0000E+00  0.6000E-01
    -14.740  0.0000E+00  0.6000E-01
    -14.660  0.0000E+00  0.6000E-01
    -14.580  0.0000E+00  0.6000E-01
    -14.500  0.0000E+00  0.1000E+00
    -14.420  0.0000E+00  0.1000E+00
    -14.340  0.0000E+00  0.1000E+00
    -14.260  0.0000E+00  0.1000E+00
    -14.180  0.0000E+00  0.1000E+00
    -14.100  0.0000E+00  0.1000E+00
    -14.021  0.0000E+00  0.1000E+00
    -13.941  0.0000E+00  0.1000E+00
    -13.861  0.0000E+00  0.1000E+00
    -13.781  0.0000E+00  0.1000E+00
    -13.701  0.0000E+00  0.1000E+00
    -13.621  0.0000E+00  0.1000E+00
    -13.541  0.0000E+00  0.1000E+00
    -13.461  0.0000E+00  0.1000E+00
    -13.381  0.0000E+00  0.1000E+00
    -13.301  0.0000E+00  0.1000E+00
    -13.221  0.0000E+00  0.1000E+00
    -13.141  0.0000E+00  0.1000E+00
    -13.061  0.0000E+00  0.1000E+00
    -12.982  0.0000E+00  0.1000E+00
    -12.902  0.0000E+00  0.1000E+00
    -12.822  0.0000E+00  0.1000E+00
    -12.742  0.0000E+00  0.1000E+00
    -12.662  0.0000E+00  0.1000E+00
    -12.582  0.0000E+00  0.1200E+00
    -12.502  0.0000E+00  0.1200E+00
    -12.422  0.0000E+00  0.1200E+00
    -12.342  0.0000E+00  0.1200E+00
    -12.262  0.0000E+00  0.1200E+00
    -12.182  0.0000E+00  0.1200E+00
    -12.102  0.0000E+00  0.1200E+00
    -12.022  0.0000E+00  0.1200E+00
    -11.943  0.0000E+00  0.1200E+00
    -11.863  0.0000E+00  0.1200E+00
    -11.783  0.0000E+00  0.1200E+00
    -11.703  0.0000E+00  0.1200E+00
    -11.623  0.0000E+00  0.1200E+00
    -11.543  0.0000E+00  0.1200E+00
    -11.463  0.0000E+00  0.1200E+00
    -11.383  0.0000E+00  0.1200E+00
    -11.303  0.0000E+00  0.1200E+00
    -11.223  0.0000E+00  0.1200E+00
    -11.143  0.0000E+00  0.1200E+00
    -11.063  0.0000E+00  0.1200E+00
    -10.983  0.0000E+00  0.1200E+00
    -10.903  0.2536E+00  0.1403E+00
    -10.824  0.0000E+00  0.1400E+00
    -10.744  0.0000E+00  0.1400E+00
    -10.664  0.0000E+00  0.1400E+00
    -10.584  0.0000E+00  0.1600E+00
    -10.504  0.0000E+00  0.1600E+00
    -10.424  0.0000E+00  0.1600E+00
    -10.344  0.0000E+00  0.1600E+00
    -10.264  0.0000E+00  0.1600E+00
    -10.184  0.0000E+00  0.1600E+00
    -10.104  0.0000E+00  0.1600E+00
    -10.024  0.0000E+00  0.1600E+00
     -9.944  0.0000E+00  0.1600E+00
     -9.864  0.0000E+00  0.2000E+00
     -9.785  0.0000E+00  0.2000E+00
     -9.705  0.0000E+00  0.2000E+00
     -9.625  0.0000E+00  0.2000E+00
     -9.545  0.0000E+00  0.2000E+00
     -9.465  0.0000E+00  0.2000E+00
     -9.385  0.0000E+00  0.2000E+00
     -9.305  0.0000E+00  0.2000E+00
     -9.225  0.0000E+00  0.2000E+00
     -9.145  0.0000E+00  0.2000E+00
     -9.065  0.0000E+00  0.2000E+00
     -8.985  0.0000E+00  0.2000E+00
     -8.905  0.0000E+00  0.2000E+00
     -8.825  0.0000E+00  0.2000E+00
     -8.746  0.0000E+00  0.2200E+00
     -8.666  0.0000E+00  0.2200E+00
     -8.586  0.0000E+00  0.2200E+00
     -8.506  0.0000E+00  0.2200E+00
     -8.426  0.0000E+00  0.2200E+00
     -8.346  0.0000E+00  0.2200E+00
     -8.266  0.0000E+00  0.2200E+00
     -8.186  0.0000E+00  0.2200E+00
     -8.106  0.0000E+00  0.2200E+00
     -8.026  0.0000E+00  0.2200E+00
     -7.946 -0.1194E-11  0.2200E+00
     -7.866  0.0000E+00  0.2600E+00
     -7.786  0.0000E+00  0.2600E+00
     -7.707  0.0000E+00  0.2600E+00
     -7.627  0.0000E+00  0.2600E+00
     -7.547  0.0000E+00  0.2600E+00
     -7.467  0.0000E+00  0.2600E+00
     -7.387  0.0000E+00  0.2600E+00
     -7.307  0.0000E+00  0.2600E+00
     -7.227  0.0000E+00  0.2600E+00
     -7.147  0.0000E+00  0.2600E+00
     -7.067  0.0000E+00  0.2600E+00
     -6.987  0.0000E+00  0.2600E+00
     -6.907  0.0000E+00  0.2600E+00
     -6.827  0.0000E+00  0.2600E+00
     -6.747  0.0000E+00  0.2600E+00
     -6.668  0.0000E+00  0.2600E+00
     -6.588  0.0000E+00  0.2600E+00
     -6.508  0.0000E+00  0.2600E+00
     -6.428  0.0000E+00  0.2600E+00
     -6.348  0.0000E+00  0.2600E+00
     -6.268  0.0000E+00  0.2600E+00
     -6.188  0.0000E+00  0.2600E+00
     -6.108  0.0000E+00  0.2600E+00
     -6.028  0.0000E+00  0.3000E+00
     -5.948  0.0000E+00  0.3000E+00
     -5.868  0.0000E+00  0.3000E+00
     -5.788  0.0000E+00  0.3000E+00
     -5.708  0.0000E+00  0.3000E+00
     -5.629  0.0000E+00  0.3000E+00
     -5.549  0.0000E+00  0.3000E+00
     -5.469  0.0000E+00  0.3000E+00
     -5.389  0.0000E+00  0.3000E+00
     -5.309  0.0000E+00  0.3000E+00
     -5.229  0.0000E+00  0.3000E+00
     -5.149  0.0000E+00  0.3000E+00
     -5.069  0.0000E+00  0.3000E+00
     -4.989  0.0000E+00  0.3000E+00
     -4.909  0.0000E+00  0.3000E+00
     -4.829  0.0000E+00  0.3000E+00
     -4.749  0.0000E+00  0.3000E+00
     -4.669  0.0000E+00  0.3000E+00
     -4.589  0.0000E+00  0.3000E+00
     -4.510  0.0000E+00  0.3000E+00
     -4.430  0.0000E+00  0.3000E+00
     -4.350  0.0000E+00  0.3000E+00
     -4.270  0.0000E+00  0.3000E+00
     -4.190  0.0000E+00  0.3000E+00
     -4.110  0.0000E+00  0.3000E+00
     -4.030  0.0000E+00  0.3000E+00
     -3.950  0.0000E+00  0.3000E+00
     -3.870  0.0000E+00  0.3000E+00
     -3.790  0.0000E+00  0.3000E+00
     -3.710  0.0000E+00  0.3000E+00
     -3.630  0.0000E+00  0.3000E+00
     -3.550  0.0000E+00  0.3000E+00
     -3.471  0.0000E+00  0.3000E+00
     -3.391  0.0000E+00  0.3000E+00
     -3.311  0.0000E+00  0.3000E+00
     -3.231  0.0000E+00  0.3000E+00
     -3.151  0.0000E+00  0.3000E+00
     -3.071  0.0000E+00  0.3000E+00
     -2.991  0.0000E+00  0.3000E+00
     -2.911  0.0000E+00  0.3000E+00
     -2.831  0.0000E+00  0.3000E+00
     -2.751  0.0000E+00  0.3000E+00
     -2.671  0.0000E+00  0.3000E+00
     -2.591  0.0000E+00  0.3000E+00
     -2.511  0.0000E+00  0.3000E+00
     -2.432  0.0000E+00  0.3000E+00
     -2.352  0.0000E+00  0.3000E+00
     -2.272  0.0000E+00  0.3000E+00
     -2.192  0.0000E+00  0.3000E+00
     -2.112  0.0000E+00  0.3000E+00
     -2.032  0.0000E+00  0.3000E+00
     -1.952  0.0000E+00  0.3000E+00
     -1.872  0.0000E+00  0.3000E+00
     -1.792  0.0000E+00  0.3000E+00
     -1.712  0.0000E+00  0.3000E+00
     -1.632  0.0000E+00  0.3000E+00
     -1.552  0.0000E+00  0.3000E+00
     -1.472  0.0000E+00  0.3000E+00
     -1.393  0.0000E+00  0.3000E+00
     -1.313  0.0000E+00  0.3000E+00
     -1.233  0.0000E+00  0.3000E+00
     -1.153  0.0000E+00  0.3000E+00
     -1.073  0.0000E+00  0.3000E+00
     -0.993 -0.1187E-45  0.3000E+00
     -0.913  0.0000E+00  0.3400E+00
     -0.833  0.0000E+00  0.3400E+00
     -0.753  0.0000E+00  0.3400E+00
     -0.673  0.0000E+00  0.3400E+00
     -0.593  0.0000E+00  0.3400E+00
     -0.513  0.0000E+00  0.3400E+00
     -0.433  0.0000E+00  0.3400E+00
     -0.354 -0.2044E-07  0.3422E+00
     -0.274 -0.1693-277  0.3481E+00
     -0.194  0.0000E+00  0.3600E+00
     -0.114  0.0000E+00  0.3600E+00
     -0.034  0.0000E+00  0.3600E+00
      0.046  0.0000E+00  0.3600E+00
      0.126  0.0000E+00  0.3689E+00
      0.206  0.0000E+00  0.3748E+00
      0.286  0.1854E-01  0.3889E+00
      0.366  0.0000E+00  0.3926E+00
      0.446 -0.5736-279  0.4015E+00
      0.526 -0.9287-101  0.4163E+00
      0.606  0.0000E+00  0.4170E+00
      0.686  0.0000E+00  0.4281E+00
      0.765 -0.3969E-08  0.4326E+00
      0.845  0.0000E+00  0.4370E+00
      0.925  0.0000E+00  0.4400E+00
      1.005  0.0000E+00  0.4400E+00
      1.085  0.0000E+00  0.4400E+00
      1.165  0.0000E+00  0.4400E+00
      1.245  0.0000E+00  0.4400E+00
      1.325  0.0000E+00  0.4400E+00
      1.405  0.0000E+00  0.4400E+00
      1.485  0.0000E+00  0.4400E+00
      1.565  0.0000E+00  0.4400E+00
      1.645  0.0000E+00  0.4400E+00
      1.725  0.0000E+00  0.4400E+00
      1.804  0.0000E+00  0.4400E+00
      1.884  0.0000E+00  0.4400E+00
      1.964  0.0000E+00  0.4400E+00
