   12   12  100    1
  0.1786849E+03  0.1431332E-08  0.1498058E-08  0.1000000E-08  0.5000000E-15
   1.0000000000000000E-004
  CAR 
 CO                                      
     30      8     22

  0.3742002E-15  0.3742002E-15  0.3742002E-15  0.3703704E-01
    1      -20.923070   1.000000
    2      -18.145635   1.000000
    3      -18.145119   1.000000
    4      -14.530018   1.000000
    5      -14.529631   1.000000
    6      -12.586009   1.000000
    7      -10.904415   1.000000
    8      -10.596089   1.000000
    9       -9.929172   1.000000
   10       -9.928829   1.000000
   11       -8.797597   1.000000
   12       -7.943736   1.000000
   13       -7.943034   1.000000
   14       -6.078425   1.000000
   15       -6.077932   1.000000
   16       -0.986518   0.000000
   17       -0.986092   0.000000
   18       -0.398706   0.000000
   19        0.251680   0.000000
   20        0.291405   0.000000
   21        0.533226   0.000000
   22        0.630524   0.000000

  0.3333333E+00  0.3742002E-15  0.3742002E-15  0.7407407E-01
    1      -20.923071   1.000000
    2      -18.145639   1.000000
    3      -18.145114   1.000000
    4      -14.530018   1.000000
    5      -14.529627   1.000000
    6      -12.586008   1.000000
    7      -10.904403   1.000000
    8      -10.596089   1.000000
    9       -9.929186   1.000000
   10       -9.928823   1.000000
   11       -8.797597   1.000000
   12       -7.943730   1.000000
   13       -7.943026   1.000000
   14       -6.078423   1.000000
   15       -6.077933   1.000000
   16       -0.986543   0.000000
   17       -0.985990   0.000000
   18       -0.351663   0.000000
   19        0.072415   0.000000
   20        0.284216   0.000000
   21        0.621144   0.000000
   22        0.726649   0.000000

  0.3742002E-15  0.3333333E+00  0.3742002E-15  0.7407407E-01
    1      -20.923063   1.000000
    2      -18.145628   1.000000
    3      -18.145113   1.000000
    4      -14.530015   1.000000
    5      -14.529620   1.000000
    6      -12.586009   1.000000
    7      -10.904391   1.000000
    8      -10.596089   1.000000
    9       -9.929175   1.000000
   10       -9.928824   1.000000
   11       -8.797597   1.000000
   12       -7.943728   1.000000
   13       -7.943018   1.000000
   14       -6.078423   1.000000
   15       -6.077929   1.000000
   16       -0.986527   0.000000
   17       -0.986023   0.000000
   18       -0.362290   0.000000
   19        0.066913   0.000000
   20        0.314170   0.000000
   21        0.642220   0.000000
   22        0.767413   0.000000

  0.3333333E+00  0.3333333E+00  0.3742002E-15  0.1481481E+00
    1      -20.923069   1.000000
    2      -18.145632   1.000000
    3      -18.145119   1.000000
    4      -14.530015   1.000000
    5      -14.529624   1.000000
    6      -12.586006   1.000000
    7      -10.904400   1.000000
    8      -10.596089   1.000000
    9       -9.929178   1.000000
   10       -9.928823   1.000000
   11       -8.797596   1.000000
   12       -7.943733   1.000000
   13       -7.943022   1.000000
   14       -6.078421   1.000000
   15       -6.077932   1.000000
   16       -0.986549   0.000000
   17       -0.985933   0.000000
   18       -0.315378   0.000000
   19        0.107165   0.000000
   20        0.111527   0.000000
   21        0.496603   0.000000
   22        0.874412   0.000000

  0.3742002E-15  0.3742002E-15  0.3333333E+00  0.7407407E-01
    1      -20.923065   1.000000
    2      -18.145623   1.000000
    3      -18.145111   1.000000
    4      -14.530013   1.000000
    5      -14.529619   1.000000
    6      -12.586014   1.000000
    7      -10.904415   1.000000
    8      -10.596089   1.000000
    9       -9.929184   1.000000
   10       -9.928831   1.000000
   11       -8.797637   1.000000
   12       -7.943728   1.000000
   13       -7.943015   1.000000
   14       -6.078486   1.000000
   15       -6.077998   1.000000
   16       -0.987707   0.000000
   17       -0.987380   0.000000
   18       -0.294558   0.000000
   19        0.351362   0.000000
   20        0.388489   0.000000
   21        0.411966   0.000000
   22        0.656724   0.000000

  0.3333333E+00  0.3742002E-15  0.3333333E+00  0.1481481E+00
    1      -20.923063   1.000000
    2      -18.145626   1.000000
    3      -18.145109   1.000000
    4      -14.530017   1.000000
    5      -14.529620   1.000000
    6      -12.586006   1.000000
    7      -10.904416   1.000000
    8      -10.596089   1.000000
    9       -9.929185   1.000000
   10       -9.928825   1.000000
   11       -8.797636   1.000000
   12       -7.943735   1.000000
   13       -7.943019   1.000000
   14       -6.078486   1.000000
   15       -6.077995   1.000000
   16       -0.987765   0.000000
   17       -0.987226   0.000000
   18       -0.250212   0.000000
   19        0.190194   0.000000
   20        0.379908   0.000000
   21        0.466768   0.000000
   22        0.754846   0.000000

  0.3742002E-15  0.3333333E+00  0.3333333E+00  0.1481481E+00
    1      -20.923062   1.000000
    2      -18.145628   1.000000
    3      -18.145112   1.000000
    4      -14.530007   1.000000
    5      -14.529622   1.000000
    6      -12.586011   1.000000
    7      -10.904407   1.000000
    8      -10.596089   1.000000
    9       -9.929182   1.000000
   10       -9.928827   1.000000
   11       -8.797637   1.000000
   12       -7.943728   1.000000
   13       -7.943021   1.000000
   14       -6.078488   1.000000
   15       -6.077996   1.000000
   16       -0.987726   0.000000
   17       -0.987277   0.000000
   18       -0.260956   0.000000
   19        0.186805   0.000000
   20        0.407795   0.000000
   21        0.458394   0.000000
   22        0.767502   0.000000

  0.3333333E+00  0.3333333E+00  0.3333333E+00  0.2962963E+00
    1      -20.923059   1.000000
    2      -18.145623   1.000000
    3      -18.145107   1.000000
    4      -14.530015   1.000000
    5      -14.529620   1.000000
    6      -12.586005   1.000000
    7      -10.904415   1.000000
    8      -10.596089   1.000000
    9       -9.929184   1.000000
   10       -9.928824   1.000000
   11       -8.797636   1.000000
   12       -7.943739   1.000000
   13       -7.943020   1.000000
   14       -6.078487   1.000000
   15       -6.077996   1.000000
   16       -0.987798   0.000000
   17       -0.987127   0.000000
   18       -0.216396   0.000000
   19        0.220117   0.000000
   20        0.226007   0.000000
   21        0.508278   0.000000
   22        0.633196   0.000000
