       N       E                     dE             d eps       ncg     rms          rms(c)
DAV:   1    -0.759831752244E+02   -0.75983E+02   -0.59109E-08   248   0.160E-03    0.132E-04
DAV:   2    -0.759831752210E+02    0.33315E-08   -0.16685E-08   302   0.790E-04    0.764E-05
DAV:   3    -0.759831752168E+02    0.42592E-08   -0.71711E-09   272   0.493E-04    0.347E-05
DAV:   4    -0.759831752172E+02   -0.41155E-09   -0.18686E-09   230   0.284E-04    0.165E-05
DAV:   5    -0.759831752163E+02    0.89472E-09   -0.21349E-10   212   0.119E-04    0.118E-05
DAV:   6    -0.759831752145E+02    0.18183E-08    0.20445E-10   194   0.852E-05
   1 F= -.75983175E+02 E0= -.75983175E+02  d E =-.759832E+02
