CO                                      
           1
    14.313320    0.000000    0.000000
     0.000000   14.980580    0.000000
     0.000000    0.000000   10.000000
   C    H 
   6   6
Direct configuration=     1
   0.50000000  0.59332449  0.50000000
   0.41541165  0.54666436  0.50000000
   0.41541165  0.45333564  0.50000000
   0.50000000  0.40667551  0.50000000
   0.58458835  0.45333564  0.50000000
   0.58458835  0.54666436  0.50000000
   0.50000000  0.66617489  0.50000000
   0.34937933  0.58308738  0.50000000
   0.34937933  0.41691262  0.50000000
   0.50000000  0.33382511  0.50000000
   0.65062067  0.41691262  0.50000000
   0.65062067  0.58308738  0.50000000
