  28  28   0   0
  0.3452786E+02  0.5727565E-09  0.5727565E-09  0.3402961E-08  0.2000000E-15
   1.0000000000000000E-004
  CAR 
 Bulk Rhodium calculation                
      6.87067199    -11.22455875  301      1.73920740      1.00000000
    -11.225  0.0000E+00  0.0000E+00
    -11.164  0.0000E+00  0.0000E+00
    -11.104  0.0000E+00  0.0000E+00
    -11.044  0.0000E+00  0.0000E+00
    -10.983  0.0000E+00  0.0000E+00
    -10.923  0.0000E+00  0.0000E+00
    -10.863 -0.1435E-30 -0.8655E-32
    -10.802 -0.1750E-28 -0.1064E-29
    -10.742 -0.1789E-26 -0.1090E-27
    -10.682 -0.1521E-24 -0.9285E-26
    -10.621 -0.1076E-22 -0.6585E-24
    -10.561 -0.6335E-21 -0.3887E-22
    -10.501 -0.3101E-19 -0.1909E-20
    -10.440 -0.1262E-17 -0.7801E-19
    -10.380 -0.4127E-16 -0.2567E-17
    -10.320 -0.1161E-14 -0.7257E-16
    -10.259 -0.2698E-13 -0.1700E-14
    -10.199 -0.5206E-12 -0.3310E-13
    -10.139 -0.8334E-11 -0.5358E-12
    -10.079 -0.1106E-09 -0.7206E-11
    -10.018 -0.1216E-08 -0.8056E-10
     -9.958 -0.1108E-07 -0.7486E-09
     -9.898 -0.8353E-07 -0.5787E-08
     -9.837 -0.5213E-06 -0.3723E-07
     -9.777 -0.2692E-05 -0.1996E-06
     -9.717 -0.1149E-04 -0.8925E-06
     -9.656 -0.4040E-04 -0.3329E-05
     -9.596 -0.1162E-03 -0.1034E-04
     -9.536 -0.2681E-03 -0.2651E-04
     -9.475 -0.4708E-03 -0.5491E-04
     -9.415 -0.5228E-03 -0.8644E-04
     -9.355  0.6495E-04 -0.8253E-04
     -9.294  0.1938E-02  0.3436E-04
     -9.234  0.5319E-02  0.3552E-03
     -9.174  0.9320E-02  0.9173E-03
     -9.113  0.1218E-01  0.1652E-02
     -9.053  0.1293E-01  0.2432E-02
     -8.993  0.1296E-01  0.3213E-02
     -8.932  0.1523E-01  0.4132E-02
     -8.872  0.2118E-01  0.5410E-02
     -8.812  0.2849E-01  0.7128E-02
     -8.752  0.3244E-01  0.9085E-02
     -8.691  0.3013E-01  0.1090E-01
     -8.631  0.2379E-01  0.1234E-01
     -8.571  0.1972E-01  0.1353E-01
     -8.510  0.2303E-01  0.1492E-01
     -8.450  0.3260E-01  0.1688E-01
     -8.390  0.4149E-01  0.1938E-01
     -8.329  0.4310E-01  0.2198E-01
     -8.269  0.3757E-01  0.2425E-01
     -8.209  0.3157E-01  0.2615E-01
     -8.148  0.3133E-01  0.2804E-01
     -8.088  0.3649E-01  0.3025E-01
     -8.028  0.4148E-01  0.3275E-01
     -7.967  0.4250E-01  0.3531E-01
     -7.907  0.4178E-01  0.3783E-01
     -7.847  0.4454E-01  0.4052E-01
     -7.786  0.5211E-01  0.4366E-01
     -7.726  0.5901E-01  0.4722E-01
     -7.666  0.5776E-01  0.5070E-01
     -7.606  0.4659E-01  0.5351E-01
     -7.545  0.3266E-01  0.5548E-01
     -7.485  0.2747E-01  0.5714E-01
     -7.425  0.3753E-01  0.5941E-01
     -7.364  0.5812E-01  0.6291E-01
     -7.304  0.7588E-01  0.6749E-01
     -7.244  0.7911E-01  0.7226E-01
     -7.183  0.6716E-01  0.7631E-01
     -7.123  0.5041E-01  0.7935E-01
     -7.063  0.4120E-01  0.8184E-01
     -7.002  0.4395E-01  0.8449E-01
     -6.942  0.5298E-01  0.8768E-01
     -6.882  0.5941E-01  0.9127E-01
     -6.821  0.6038E-01  0.9491E-01
     -6.761  0.6108E-01  0.9859E-01
     -6.701  0.6758E-01  0.1027E+00
     -6.640  0.7850E-01  0.1074E+00
     -6.580  0.8533E-01  0.1126E+00
     -6.520  0.8126E-01  0.1175E+00
     -6.459  0.6899E-01  0.1216E+00
     -6.399  0.5897E-01  0.1252E+00
     -6.339  0.5867E-01  0.1287E+00
     -6.279  0.6418E-01  0.1326E+00
     -6.218  0.6432E-01  0.1365E+00
     -6.158  0.5389E-01  0.1397E+00
     -6.098  0.4120E-01  0.1422E+00
     -6.037  0.4125E-01  0.1447E+00
     -5.977  0.6120E-01  0.1484E+00
     -5.917  0.9239E-01  0.1539E+00
     -5.856  0.1162E+00  0.1610E+00
     -5.796  0.1189E+00  0.1681E+00
     -5.736  0.1023E+00  0.1743E+00
     -5.675  0.8163E-01  0.1792E+00
     -5.615  0.7304E-01  0.1836E+00
     -5.555  0.8026E-01  0.1885E+00
     -5.494  0.9220E-01  0.1940E+00
     -5.434  0.9314E-01  0.1996E+00
     -5.374  0.7754E-01  0.2043E+00
     -5.313  0.5531E-01  0.2077E+00
     -5.253  0.4174E-01  0.2102E+00
     -5.193  0.4333E-01  0.2128E+00
     -5.132  0.5439E-01  0.2161E+00
     -5.072  0.6627E-01  0.2201E+00
     -5.012  0.7734E-01  0.2247E+00
     -4.952  0.9237E-01  0.2303E+00
     -4.891  0.1125E+00  0.2371E+00
     -4.831  0.1287E+00  0.2449E+00
     -4.771  0.1290E+00  0.2526E+00
     -4.710  0.1118E+00  0.2594E+00
     -4.650  0.9010E-01  0.2648E+00
     -4.590  0.8016E-01  0.2697E+00
     -4.529  0.8615E-01  0.2748E+00
     -4.469  0.9699E-01  0.2807E+00
     -4.409  0.9843E-01  0.2866E+00
     -4.348  0.8732E-01  0.2919E+00
     -4.288  0.7413E-01  0.2964E+00
     -4.228  0.7236E-01  0.3007E+00
     -4.167  0.8570E-01  0.3059E+00
     -4.107  0.1050E+00  0.3122E+00
     -4.047  0.1162E+00  0.3192E+00
     -3.986  0.1123E+00  0.3260E+00
     -3.926  0.9805E-01  0.3319E+00
     -3.866  0.8522E-01  0.3371E+00
     -3.806  0.8205E-01  0.3420E+00
     -3.745  0.8770E-01  0.3473E+00
     -3.685  0.9568E-01  0.3531E+00
     -3.625  0.1010E+00  0.3592E+00
     -3.564  0.1035E+00  0.3654E+00
     -3.504  0.1044E+00  0.3717E+00
     -3.444  0.1029E+00  0.3779E+00
     -3.383  0.9535E-01  0.3837E+00
     -3.323  0.8151E-01  0.3886E+00
     -3.263  0.6934E-01  0.3928E+00
     -3.202  0.7286E-01  0.3972E+00
     -3.142  0.1002E+00  0.4032E+00
     -3.082  0.1419E+00  0.4118E+00
     -3.021  0.1736E+00  0.4222E+00
     -2.961  0.1745E+00  0.4328E+00
     -2.901  0.1460E+00  0.4416E+00
     -2.840  0.1113E+00  0.4483E+00
     -2.780  0.9422E-01  0.4540E+00
     -2.720  0.9965E-01  0.4600E+00
     -2.659  0.1133E+00  0.4668E+00
     -2.599  0.1195E+00  0.4740E+00
     -2.539  0.1155E+00  0.4810E+00
     -2.479  0.1079E+00  0.4875E+00
     -2.418  0.1011E+00  0.4936E+00
     -2.358  0.9251E-01  0.4992E+00
     -2.298  0.7927E-01  0.5040E+00
     -2.237  0.6689E-01  0.5080E+00
     -2.177  0.6726E-01  0.5120E+00
     -2.117  0.8748E-01  0.5173E+00
     -2.056  0.1204E+00  0.5246E+00
     -1.996  0.1477E+00  0.5335E+00
     -1.936  0.1546E+00  0.5428E+00
     -1.875  0.1435E+00  0.5515E+00
     -1.815  0.1312E+00  0.5594E+00
     -1.755  0.1320E+00  0.5673E+00
     -1.694  0.1448E+00  0.5761E+00
     -1.634  0.1561E+00  0.5855E+00
     -1.574  0.1555E+00  0.5949E+00
     -1.513  0.1449E+00  0.6036E+00
     -1.453  0.1368E+00  0.6119E+00
     -1.393  0.1411E+00  0.6204E+00
     -1.332  0.1552E+00  0.6297E+00
     -1.272  0.1637E+00  0.6396E+00
     -1.212  0.1528E+00  0.6488E+00
     -1.152  0.1255E+00  0.6564E+00
     -1.091  0.9789E-01  0.6623E+00
     -1.031  0.8316E-01  0.6673E+00
     -0.971  0.8048E-01  0.6722E+00
     -0.910  0.8300E-01  0.6772E+00
     -0.850  0.9048E-01  0.6826E+00
     -0.790  0.1089E+00  0.6892E+00
     -0.729  0.1385E+00  0.6976E+00
     -0.669  0.1672E+00  0.7077E+00
     -0.609  0.1782E+00  0.7184E+00
     -0.548  0.1652E+00  0.7284E+00
     -0.488  0.1388E+00  0.7367E+00
     -0.428  0.1184E+00  0.7439E+00
     -0.367  0.1158E+00  0.7509E+00
     -0.307  0.1263E+00  0.7585E+00
     -0.247  0.1339E+00  0.7666E+00
     -0.186  0.1265E+00  0.7742E+00
     -0.126  0.1074E+00  0.7807E+00
     -0.066  0.9523E-01  0.7864E+00
     -0.006  0.1075E+00  0.7929E+00
      0.055  0.1433E+00  0.8015E+00
      0.115  0.1812E+00  0.8125E+00
      0.175  0.1978E+00  0.8244E+00
      0.236  0.1855E+00  0.8356E+00
      0.296  0.1521E+00  0.8448E+00
      0.356  0.1118E+00  0.8515E+00
      0.417  0.8073E-01  0.8564E+00
      0.477  0.7529E-01  0.8609E+00
      0.537  0.1023E+00  0.8671E+00
      0.598  0.1478E+00  0.8760E+00
      0.658  0.1837E+00  0.8871E+00
      0.718  0.1892E+00  0.8985E+00
      0.779  0.1664E+00  0.9085E+00
      0.839  0.1340E+00  0.9166E+00
      0.899  0.1085E+00  0.9231E+00
      0.960  0.9402E-01  0.9288E+00
      1.020  0.8814E-01  0.9341E+00
      1.080  0.9173E-01  0.9397E+00
      1.141  0.1089E+00  0.9462E+00
      1.201  0.1378E+00  0.9545E+00
      1.261  0.1665E+00  0.9646E+00
      1.321  0.1802E+00  0.9755E+00
      1.382  0.1747E+00  0.9860E+00
      1.442  0.1612E+00  0.9957E+00
      1.502  0.1571E+00  0.1005E+01
      1.563  0.1701E+00  0.1015E+01
      1.623  0.1908E+00  0.1027E+01
      1.683  0.2020E+00  0.1039E+01
      1.744  0.1935E+00  0.1051E+01
      1.804  0.1691E+00  0.1061E+01
      1.864  0.1409E+00  0.1070E+01
      1.925  0.1193E+00  0.1077E+01
      1.985  0.1088E+00  0.1083E+01
      2.045  0.1075E+00  0.1090E+01
      2.106  0.1096E+00  0.1096E+01
      2.166  0.1113E+00  0.1103E+01
      2.226  0.1165E+00  0.1110E+01
      2.287  0.1334E+00  0.1118E+01
      2.347  0.1644E+00  0.1128E+01
      2.407  0.1989E+00  0.1140E+01
      2.467  0.2197E+00  0.1153E+01
      2.528  0.2153E+00  0.1166E+01
      2.588  0.1891E+00  0.1178E+01
      2.648  0.1572E+00  0.1187E+01
      2.709  0.1383E+00  0.1196E+01
      2.769  0.1416E+00  0.1204E+01
      2.829  0.1624E+00  0.1214E+01
      2.890  0.1864E+00  0.1225E+01
      2.950  0.1986E+00  0.1237E+01
      3.010  0.1896E+00  0.1249E+01
      3.071  0.1612E+00  0.1258E+01
      3.131  0.1260E+00  0.1266E+01
      3.191  0.9915E-01  0.1272E+01
      3.252  0.8886E-01  0.1277E+01
      3.312  0.9504E-01  0.1283E+01
      3.372  0.1144E+00  0.1290E+01
      3.433  0.1438E+00  0.1299E+01
      3.493  0.1773E+00  0.1309E+01
      3.553  0.2048E+00  0.1322E+01
      3.614  0.2160E+00  0.1335E+01
      3.674  0.2100E+00  0.1347E+01
      3.734  0.1971E+00  0.1359E+01
      3.794  0.1892E+00  0.1371E+01
      3.855  0.1876E+00  0.1382E+01
      3.915  0.1829E+00  0.1393E+01
      3.975  0.1698E+00  0.1403E+01
      4.036  0.1558E+00  0.1413E+01
      4.096  0.1527E+00  0.1422E+01
      4.156  0.1622E+00  0.1432E+01
      4.217  0.1734E+00  0.1442E+01
      4.277  0.1750E+00  0.1453E+01
      4.337  0.1639E+00  0.1462E+01
      4.398  0.1441E+00  0.1471E+01
      4.458  0.1200E+00  0.1478E+01
      4.518  0.9479E-01  0.1484E+01
      4.579  0.7207E-01  0.1488E+01
      4.639  0.5561E-01  0.1492E+01
      4.699  0.4592E-01  0.1495E+01
      4.760  0.3888E-01  0.1497E+01
      4.820  0.2974E-01  0.1499E+01
      4.880  0.1809E-01  0.1500E+01
      4.941  0.7431E-02  0.1500E+01
      5.001  0.8436E-03  0.1500E+01
      5.061 -0.1566E-02  0.1500E+01
      5.121 -0.1602E-02  0.1500E+01
      5.182 -0.9628E-03  0.1500E+01
      5.242 -0.4376E-03  0.1500E+01
      5.302 -0.1619E-03  0.1500E+01
      5.363 -0.5021E-04  0.1500E+01
      5.423 -0.1318E-04  0.1500E+01
      5.483 -0.2927E-05  0.1500E+01
      5.544 -0.5477E-06  0.1500E+01
      5.604 -0.8591E-07  0.1500E+01
      5.664 -0.1125E-07  0.1500E+01
      5.725 -0.1226E-08  0.1500E+01
      5.785 -0.1110E-09  0.1500E+01
      5.845 -0.8348E-11  0.1500E+01
      5.906 -0.5209E-12  0.1500E+01
      5.966 -0.2699E-13  0.1500E+01
      6.026 -0.1155E-14  0.1500E+01
      6.087 -0.3944E-16  0.1500E+01
      6.147 -0.1878E-17  0.1500E+01
      6.207  0.0000E+00  0.1500E+01
      6.267  0.0000E+00  0.1500E+01
      6.328  0.0000E+00  0.1500E+01
      6.388  0.0000E+00  0.1500E+01
      6.448  0.0000E+00  0.1500E+01
      6.509  0.0000E+00  0.1500E+01
      6.569  0.0000E+00  0.1500E+01
      6.629  0.0000E+00  0.1500E+01
      6.690  0.0000E+00  0.1500E+01
      6.750  0.0000E+00  0.1500E+01
      6.810  0.0000E+00  0.1500E+01
      6.871  0.0000E+00  0.1500E+01
