   28   28   80    1
  0.3452786E+02  0.5727565E-09  0.5727565E-09  0.3402961E-08  0.2000000E-15
   1.0000000000000000E-004
  CAR 
 Bulk Rhodium calculation                
     84      8     60

  0.3742002E-15  0.3742002E-15  0.1262379E-14  0.2040816E-01
    1       -9.224559   1.000000
    2       -8.847956   1.000000
    3       -8.196447   1.000000
    4       -7.358969   1.000000
    5       -6.322642   1.000000
    6       -5.034704   1.000000
    7       -3.507326   1.000000
    8       -3.342899   1.000000
    9       -3.342899   1.000000
   10       -3.342898   1.000000
   11       -3.336924   1.000000
   12       -3.336924   1.000000
   13       -3.336924   1.000000
   14       -3.007870   1.000000
   15       -3.007870   1.000000
   16       -3.007868   1.000000
   17       -2.953093   1.000000
   18       -2.953092   1.000000
   19       -2.953092   1.000000
   20       -2.383308   1.000000
   21       -2.383308   1.000000
   22       -2.383305   1.000000
   23       -2.332911   1.000000
   24       -2.332909   1.000000
   25       -2.332909   1.000000
   26       -2.031245   1.000000
   27       -1.613961   1.000000
   28       -1.613961   1.000000
   29       -1.613961   1.000000
   30       -1.569417   1.000000
   31       -1.569417   1.000000
   32       -1.569416   1.000000
   33       -0.754452   1.000000
   34       -0.754452   1.000000
   35       -0.754449   1.000000
   36       -0.203255   1.000000
   37       -0.203252   1.000000
   38       -0.203252   1.000000
   39       -0.178413   1.000000
   40        0.792701   1.000000
   41        0.792703   1.000000
   42        0.792703   1.000000
   43        0.904296   1.000000
   44        0.904298   1.000000
   45        0.904298   1.000000
   46        1.671361   0.769590
   47        2.255960  -0.000790
   48        2.255962  -0.000790
   49        2.255962  -0.000790
   50        2.388984  -0.000022
   51        2.388984  -0.000022
   52        2.388984  -0.000022
   53        3.448750  -0.000000
   54        3.521341  -0.000000
   55        3.521341  -0.000000
   56        3.521341  -0.000000
   57        3.713334  -0.000000
   58        3.713334  -0.000000
   59        3.713335  -0.000000
   60        4.870672  -0.000000

  0.1428571E+00  0.3608225E-15  0.1262379E-14  0.1224490E+00
    1       -9.101910   1.000000
    2       -8.725582   1.000000
    3       -8.074510   1.000000
    4       -7.237620   1.000000
    5       -6.202004   1.000000
    6       -4.914806   1.000000
    7       -4.875132   1.000000
    8       -4.509436   1.000000
    9       -4.045446   1.000000
   10       -4.045445   1.000000
   11       -3.876113   1.000000
   12       -3.682808   1.000000
   13       -3.682807   1.000000
   14       -3.387382   1.000000
   15       -3.066786   1.000000
   16       -3.056347   1.000000
   17       -3.056346   1.000000
   18       -2.414709   1.000000
   19       -2.414707   1.000000
   20       -2.251235   1.000000
   21       -2.251235   1.000000
   22       -2.082952   1.000000
   23       -2.045604   1.000000
   24       -2.045604   1.000000
   25       -1.916497   1.000000
   26       -1.592182   1.000000
   27       -1.452078   1.000000
   28       -1.452078   1.000000
   29       -1.320482   1.000000
   30       -1.320480   1.000000
   31       -1.251646   1.000000
   32       -0.968448   1.000000
   33       -0.634672   1.000000
   34       -0.634671   1.000000
   35       -0.517472   1.000000
   36       -0.063547   1.000000
   37        0.119727   1.000000
   38        0.119728   1.000000
   39        0.283948   1.000000
   40        0.596188   1.000000
   41        0.596191   1.000000
   42        0.951703   1.000000
   43        1.309832   1.004834
   44        1.649580   0.840297
   45        1.649582   0.840292
   46        1.729744   0.539993
   47        1.729745   0.539988
   48        1.784427   0.313976
   49        2.142610  -0.007564
   50        2.526129  -0.000000
   51        2.921283  -0.000000
   52        2.921283  -0.000000
   53        3.204395  -0.000000
   54        3.204395  -0.000000
   55        3.560326  -0.000000
   56        3.913659  -0.000000
   57        4.097680  -0.000000
   58        4.461888  -0.000000
   59        4.461889  -0.000000
   60        4.725948  -0.000000

  0.2857143E+00  0.4163336E-15  0.1262379E-14  0.1224490E+00
    1       -8.734587   1.000000
    2       -8.359109   1.000000
    3       -7.709370   1.000000
    4       -6.874246   1.000000
    5       -6.189760   1.000000
    6       -5.840806   1.000000
    7       -5.820348   1.000000
    8       -5.180394   1.000000
    9       -4.555948   1.000000
   10       -4.518656   1.000000
   11       -4.518656   1.000000
   12       -4.359224   1.000000
   13       -4.154001   1.000000
   14       -4.154001   1.000000
   15       -3.522507   1.000000
   16       -3.522507   1.000000
   17       -3.345269   1.000000
   18       -3.028804   1.000000
   19       -2.716186   1.000000
   20       -2.716185   1.000000
   21       -2.090130   1.000000
   22       -1.737774   1.000000
   23       -1.737772   1.000000
   24       -1.572644   1.000000
   25       -1.244058   1.000000
   26       -1.244058   1.000000
   27       -0.905668   1.000000
   28       -0.905667   1.000000
   29       -0.636544   1.000000
   30       -0.630580   1.000000
   31       -0.630578   1.000000
   32       -0.174948   1.000000
   33       -0.174948   1.000000
   34        0.279132   1.000000
   35        0.314964   1.000000
   36        0.607425   1.000000
   37        0.622134   1.000000
   38        0.622135   1.000000
   39        1.031912   1.000003
   40        1.264203   1.001987
   41        1.264208   1.001987
   42        1.511963   1.034100
   43        1.637246   0.875435
   44        1.637248   0.875432
   45        2.119368  -0.010869
   46        2.250646  -0.000893
   47        2.444937  -0.000004
   48        2.444938  -0.000004
   49        2.794109  -0.000000
   50        2.794109  -0.000000
   51        2.840490  -0.000000
   52        3.214298  -0.000000
   53        3.498488  -0.000000
   54        3.498490  -0.000000
   55        3.694415  -0.000000
   56        3.694417  -0.000000
   57        3.885941  -0.000000
   58        4.254450  -0.000000
   59        4.254452  -0.000000
   60        4.406803  -0.000000

  0.4285714E+00  0.3885781E-15  0.1262379E-14  0.1224490E+00
    1       -8.124507   1.000000
    2       -7.750437   1.000000
    3       -7.274789   1.000000
    4       -7.102924   1.000000
    5       -6.902712   1.000000
    6       -6.270824   1.000000
    7       -6.258389   1.000000
    8       -5.430735   1.000000
    9       -5.241195   1.000000
   10       -4.755985   1.000000
   11       -4.755985   1.000000
   12       -4.407013   1.000000
   13       -4.390475   1.000000
   14       -4.390475   1.000000
   15       -3.960714   1.000000
   16       -3.757223   1.000000
   17       -3.757223   1.000000
   18       -3.134278   1.000000
   19       -2.946878   1.000000
   20       -2.946877   1.000000
   21       -2.435774   1.000000
   22       -1.951835   1.000000
   23       -1.951835   1.000000
   24       -1.618878   1.000000
   25       -1.001522   1.000000
   26       -0.745064   1.000000
   27       -0.745063   1.000000
   28       -0.211994   1.000000
   29        0.137094   1.000000
   30        0.137095   1.000000
   31        0.315627   1.000000
   32        0.315630   1.000000
   33        0.741967   1.000000
   34        0.741969   1.000000
   35        0.840188   1.000000
   36        1.282352   1.002874
   37        1.282357   1.002874
   38        1.535689   1.026858
   39        1.669816   0.774946
   40        1.669816   0.774945
   41        1.971075  -0.034738
   42        1.971075  -0.034738
   43        2.131797  -0.008995
   44        2.131798  -0.008995
   45        2.430573  -0.000006
   46        2.430574  -0.000006
   47        2.497404  -0.000001
   48        2.646122  -0.000000
   49        2.783722  -0.000000
   50        2.783724  -0.000000
   51        2.959486  -0.000000
   52        2.959486  -0.000000
   53        3.008669  -0.000000
   54        3.612957  -0.000000
   55        3.612958  -0.000000
   56        3.640241  -0.000000
   57        3.717948  -0.000000
   58        4.282362  -0.000000
   59        4.360873  -0.000000
   60        4.371995  -0.000000

  0.2857143E+00  0.1428571E+00  0.1262379E-14  0.1224490E+00
    1       -8.856926   1.000000
    2       -8.481163   1.000000
    3       -7.830978   1.000000
    4       -6.995261   1.000000
    5       -5.961090   1.000000
    6       -5.471061   1.000000
    7       -5.471061   1.000000
    8       -5.103569   1.000000
    9       -5.103569   1.000000
   10       -4.675430   1.000000
   11       -4.466882   1.000000
   12       -4.466882   1.000000
   13       -3.651009   1.000000
   14       -3.651009   1.000000
   15       -3.148114   1.000000
   16       -2.991093   1.000000
   17       -2.984528   1.000000
   18       -2.659612   1.000000
   19       -2.646714   1.000000
   20       -2.646714   1.000000
   21       -2.600013   1.000000
   22       -2.037390   1.000000
   23       -1.980192   1.000000
   24       -1.687181   1.000000
   25       -1.421797   1.000000
   26       -1.421795   1.000000
   27       -1.268605   1.000000
   28       -1.226585   1.000000
   29       -0.550743   1.000000
   30       -0.550743   1.000000
   31       -0.416645   1.000000
   32       -0.358390   1.000000
   33       -0.358386   1.000000
   34        0.100123   1.000000
   35        0.100123   1.000000
   36        0.140776   1.000000
   37        0.165280   1.000000
   38        0.691254   1.000000
   39        0.691258   1.000000
   40        1.118377   1.000052
   41        1.227230   1.000882
   42        1.379769   1.014540
   43        1.379771   1.014540
   44        1.610975   0.937631
   45        1.610975   0.937630
   46        2.008651  -0.033512
   47        2.312546  -0.000193
   48        2.312546  -0.000193
   49        2.508041  -0.000000
   50        2.594182  -0.000000
   51        3.362357  -0.000000
   52        3.427210  -0.000000
   53        3.427211  -0.000000
   54        3.532429  -0.000000
   55        3.532429  -0.000000
   56        3.638156  -0.000000
   57        3.779755  -0.000000
   58        4.103318  -0.000000
   59        4.228705  -0.000000
   60        4.711856  -0.000000

  0.4285714E+00  0.1428571E+00  0.1262379E-14  0.2448980E+00
    1       -8.368228   1.000000
    2       -7.993586   1.000000
    3       -7.345181   1.000000
    4       -6.670950   1.000000
    5       -6.511866   1.000000
    6       -6.300335   1.000000
    7       -5.829894   1.000000
    8       -5.658367   1.000000
    9       -5.480678   1.000000
   10       -5.461399   1.000000
   11       -4.834133   1.000000
   12       -4.822952   1.000000
   13       -4.198349   1.000000
   14       -4.004047   1.000000
   15       -3.815292   1.000000
   16       -3.338068   1.000000
   17       -2.993472   1.000000
   18       -2.977946   1.000000
   19       -2.672182   1.000000
   20       -2.550066   1.000000
   21       -2.356482   1.000000
   22       -1.743698   1.000000
   23       -1.720174   1.000000
   24       -1.556443   1.000000
   25       -1.348259   1.000000
   26       -1.229526   1.000000
   27       -1.050849   1.000000
   28       -0.763062   1.000000
   29       -0.644257   1.000000
   30       -0.299818   1.000000
   31        0.039942   1.000000
   32        0.327638   1.000000
   33        0.618307   1.000000
   34        0.654501   1.000000
   35        0.765256   1.000000
   36        0.939898   1.000000
   37        1.185474   1.000321
   38        1.367182   1.012230
   39        1.423929   1.024159
   40        1.540447   1.024472
   41        1.678343   0.744794
   42        1.822223   0.180039
   43        1.852937   0.094551
   44        2.084798  -0.017346
   45        2.362954  -0.000047
   46        2.385467  -0.000024
   47        2.445532  -0.000004
   48        2.579243  -0.000000
   49        2.754086  -0.000000
   50        2.985681  -0.000000
   51        3.027985  -0.000000
   52        3.359731  -0.000000
   53        3.515095  -0.000000
   54        3.563484  -0.000000
   55        3.712048  -0.000000
   56        3.856132  -0.000000
   57        4.140286  -0.000000
   58        4.187420  -0.000000
   59        4.206883  -0.000000
   60        4.338775  -0.000000

 -0.4285714E+00  0.1428571E+00  0.1262379E-14  0.1224490E+00
    1       -7.638330   1.000000
    2       -7.638330   1.000000
    3       -7.265392   1.000000
    4       -7.265392   1.000000
    5       -6.619686   1.000000
    6       -6.619686   1.000000
    7       -5.949719   1.000000
    8       -5.790079   1.000000
    9       -5.790079   1.000000
   10       -5.580898   1.000000
   11       -4.941892   1.000000
   12       -4.763708   1.000000
   13       -4.763708   1.000000
   14       -4.122068   1.000000
   15       -3.487296   1.000000
   16       -3.487296   1.000000
   17       -3.455298   1.000000
   18       -3.109785   1.000000
   19       -3.094315   1.000000
   20       -2.469834   1.000000
   21       -1.966208   1.000000
   22       -1.966208   1.000000
   23       -1.855210   1.000000
   24       -1.676936   1.000000
   25       -0.732017   1.000000
   26       -0.547400   1.000000
   27       -0.547400   1.000000
   28       -0.379477   1.000000
   29       -0.222418   1.000000
   30       -0.196895   1.000000
   31        0.093836   1.000000
   32        0.149882   1.000000
   33        0.285530   1.000000
   34        0.679925   1.000000
   35        0.924128   1.000000
   36        0.967393   1.000000
   37        1.272368   1.002352
   38        1.272368   1.002352
   39        1.510070   1.034388
   40        1.651119   0.835657
   41        2.006610  -0.033798
   42        2.185490  -0.003530
   43        2.476308  -0.000001
   44        2.524199  -0.000000
   45        2.612118  -0.000000
   46        2.621783  -0.000000
   47        2.967979  -0.000000
   48        2.967980  -0.000000
   49        3.074183  -0.000000
   50        3.097421  -0.000000
   51        3.188359  -0.000000
   52        3.578170  -0.000000
   53        3.653433  -0.000000
   54        3.881330  -0.000000
   55        3.881331  -0.000000
   56        3.899741  -0.000000
   57        4.036528  -0.000000
   58        4.117991  -0.000000
   59        4.141188  -0.000000
   60        4.337630  -0.000000

 -0.4285714E+00  0.2857143E+00  0.1262379E-14  0.1224490E+00
    1       -7.759713   1.000000
    2       -7.386493   1.000000
    3       -6.912157   1.000000
    4       -6.912156   1.000000
    5       -6.740329   1.000000
    6       -6.540952   1.000000
    7       -6.540952   1.000000
    8       -5.910088   1.000000
    9       -5.898019   1.000000
   10       -5.898019   1.000000
   11       -5.072347   1.000000
   12       -5.072347   1.000000
   13       -4.882872   1.000000
   14       -4.051353   1.000000
   15       -4.051353   1.000000
   16       -3.605335   1.000000
   17       -2.782342   1.000000
   18       -2.782341   1.000000
   19       -2.082800   1.000000
   20       -1.941925   1.000000
   21       -1.934415   1.000000
   22       -1.620475   1.000000
   23       -1.551155   1.000000
   24       -1.272054   1.000000
   25       -1.272053   1.000000
   26       -1.010883   1.000000
   27       -0.939226   1.000000
   28       -0.660097   1.000000
   29       -0.344895   1.000000
   30       -0.257815   1.000000
   31       -0.207796   1.000000
   32        0.033455   1.000000
   33        0.125465   1.000000
   34        0.125465   1.000000
   35        0.518023   1.000000
   36        0.583183   1.000000
   37        1.097573   1.000028
   38        1.171430   1.000223
   39        1.318026   1.005594
   40        1.853300   0.093680
   41        1.853303   0.093674
   42        2.321197  -0.000153
   43        2.547508  -0.000000
   44        2.824512  -0.000000
   45        2.824514  -0.000000
   46        2.884175  -0.000000
   47        2.949428  -0.000000
   48        3.320487  -0.000000
   49        3.320488  -0.000000
   50        3.816831  -0.000000
   51        3.880325  -0.000000
   52        3.882484  -0.000000
   53        3.882484  -0.000000
   54        3.951872  -0.000000
   55        3.951874  -0.000000
   56        3.999425  -0.000000
   57        4.503492  -0.000000
   58        4.534599  -0.000000
   59        4.534620  -0.000000
   60        4.738597  -0.000000
