       N       E                     dE             d eps       ncg     rms          rms(c)
DAV:   1     0.237435922877E+03    0.23744E+03   -0.23533E+04   960   0.845E+02
DAV:   2    -0.854529816988E+02   -0.32289E+03   -0.30481E+03  1244   0.159E+02
DAV:   3    -0.104110148226E+03   -0.18657E+02   -0.17853E+02  1256   0.365E+01
DAV:   4    -0.104997780288E+03   -0.88763E+00   -0.88187E+00  1548   0.872E+00
DAV:   5    -0.105022193720E+03   -0.24413E-01   -0.24400E-01  1464   0.151E+00    0.754E+00
DAV:   6    -0.107379585125E+03   -0.23574E+01   -0.18431E+01  1336   0.161E+01    0.691E+00
DAV:   7    -0.102228638669E+03    0.51509E+01   -0.15842E+01  1124   0.154E+01    0.370E+00
DAV:   8    -0.102184574994E+03    0.44064E-01   -0.66309E+00  1120   0.590E+00    0.173E+00
DAV:   9    -0.101921769540E+03    0.26281E+00   -0.59677E-01  1108   0.258E+00    0.620E-01
DAV:  10    -0.101895482232E+03    0.26287E-01   -0.14156E-01  1312   0.106E+00    0.489E-01
DAV:  11    -0.101881578295E+03    0.13904E-01   -0.19644E-02  1212   0.446E-01    0.266E-01
DAV:  12    -0.101877703936E+03    0.38744E-02   -0.66963E-03  1208   0.217E-01    0.187E-01
DAV:  13    -0.101875311871E+03    0.23921E-02   -0.40560E-03  1176   0.188E-01    0.885E-02
DAV:  14    -0.101875465005E+03   -0.15313E-03   -0.27364E-03  1144   0.131E-01    0.662E-02
DAV:  15    -0.101877280415E+03   -0.18154E-02   -0.75002E-04  1116   0.801E-02    0.515E-02
DAV:  16    -0.101878505145E+03   -0.12247E-02   -0.20222E-04  1056   0.392E-02    0.677E-02
DAV:  17    -0.101878945044E+03   -0.43990E-03   -0.99837E-05  1024   0.312E-02    0.124E-02
DAV:  18    -0.101879540799E+03   -0.59575E-03   -0.34414E-05   876   0.163E-02    0.338E-02
DAV:  19    -0.101879580638E+03   -0.39839E-04   -0.80682E-06   852   0.842E-03    0.805E-03
DAV:  20    -0.101879660254E+03   -0.79616E-04   -0.42885E-06   740   0.573E-03    0.332E-03
DAV:  21    -0.101879678349E+03   -0.18095E-04   -0.10843E-06   668   0.390E-03    0.109E-03
DAV:  22    -0.101879692454E+03   -0.14105E-04   -0.12824E-06   668   0.340E-03    0.792E-04
DAV:  23    -0.101879699353E+03   -0.68987E-05   -0.70802E-07   644   0.262E-03
   1 F= -.10187970E+03 E0= -.10187158E+03  d E =-.101880E+03
