Bulk Rhodium calculation                
           1
     5.727565    0.000000    0.000000
     2.863782    4.960217    0.000000
     0.000000    0.000000   34.029612
   Al
  28
Direct configuration=     1
   0.00000000  0.00000000  0.29488921
   0.50000000  0.00000000  0.29488921
   0.00000000  0.50000000  0.29488921
   0.50000000  0.50000000  0.29488921
   0.16666667  0.16666667  0.36403690
   0.66666667  0.16666667  0.36403690
   0.16666667  0.66666667  0.36403690
   0.66666667  0.66666667  0.36403690
   0.83333333  0.33333333  0.43175073
   0.33333333  0.33333333  0.43175073
   0.83333333  0.83333333  0.43175073
   0.33333333  0.83333333  0.43175073
   0.00000000  0.00000000  0.50000000
   0.50000000  0.00000000  0.50000000
   0.00000000  0.50000000  0.50000000
   0.50000000  0.50000000  0.50000000
   0.16666667  0.16666667  0.56824927
   0.66666667  0.16666667  0.56824927
   0.16666667  0.66666667  0.56824927
   0.66666667  0.66666667  0.56824927
   0.83333333  0.33333333  0.63596310
   0.33333333  0.33333333  0.63596310
   0.83333333  0.83333333  0.63596310
   0.33333333  0.83333333  0.63596310
   0.00000000  0.00000000  0.70511079
   0.50000000  0.00000000  0.70511079
   0.00000000  0.50000000  0.70511079
   0.50000000  0.50000000  0.70511079
