   5   5   0   0
  0.2000000E+03  0.1000000E-08  0.1000000E-08  0.1000000E-08  0.5000000E-15
   1.0000000000000000E-004
  CAR 
 CH4                                     
      2.17555496    -17.79102595  301     -9.25531261      1.00000000
    -17.791  0.0000E+00  0.0000E+00
    -17.724  0.0000E+00  0.0000E+00
    -17.658  0.0000E+00  0.0000E+00
    -17.591  0.0000E+00  0.0000E+00
    -17.525  0.0000E+00  0.0000E+00
    -17.458  0.0000E+00  0.0000E+00
    -17.392  0.0000E+00  0.0000E+00
    -17.325  0.0000E+00  0.0000E+00
    -17.259  0.0000E+00  0.0000E+00
    -17.192  0.0000E+00  0.0000E+00
    -17.125  0.0000E+00  0.0000E+00
    -17.059  0.0000E+00  0.0000E+00
    -16.992  0.0000E+00  0.0000E+00
    -16.926  0.0000E+00  0.0000E+00
    -16.859  0.0000E+00  0.2000E-01
    -16.793  0.0000E+00  0.2000E-01
    -16.726  0.0000E+00  0.2000E-01
    -16.660  0.0000E+00  0.2000E-01
    -16.593  0.0000E+00  0.2000E-01
    -16.526  0.0000E+00  0.2000E-01
    -16.460  0.0000E+00  0.2000E-01
    -16.393  0.0000E+00  0.2000E-01
    -16.327  0.0000E+00  0.2000E-01
    -16.260  0.0000E+00  0.2000E-01
    -16.194  0.0000E+00  0.2000E-01
    -16.127  0.0000E+00  0.2000E-01
    -16.061  0.0000E+00  0.2000E-01
    -15.994  0.0000E+00  0.2000E-01
    -15.927  0.0000E+00  0.2000E-01
    -15.861  0.0000E+00  0.2000E-01
    -15.794  0.0000E+00  0.2000E-01
    -15.728  0.0000E+00  0.2000E-01
    -15.661  0.0000E+00  0.2000E-01
    -15.595  0.0000E+00  0.2000E-01
    -15.528  0.0000E+00  0.2000E-01
    -15.462  0.0000E+00  0.2000E-01
    -15.395  0.0000E+00  0.2000E-01
    -15.328  0.0000E+00  0.2000E-01
    -15.262  0.0000E+00  0.2000E-01
    -15.195  0.0000E+00  0.2000E-01
    -15.129  0.0000E+00  0.2000E-01
    -15.062  0.0000E+00  0.2000E-01
    -14.996  0.0000E+00  0.2000E-01
    -14.929  0.0000E+00  0.2000E-01
    -14.863  0.0000E+00  0.2000E-01
    -14.796  0.0000E+00  0.2000E-01
    -14.729  0.0000E+00  0.2000E-01
    -14.663  0.0000E+00  0.2000E-01
    -14.596  0.0000E+00  0.2000E-01
    -14.530  0.0000E+00  0.2000E-01
    -14.463  0.0000E+00  0.2000E-01
    -14.397  0.0000E+00  0.2000E-01
    -14.330  0.0000E+00  0.2000E-01
    -14.264  0.0000E+00  0.2000E-01
    -14.197  0.0000E+00  0.2000E-01
    -14.130  0.0000E+00  0.2000E-01
    -14.064  0.0000E+00  0.2000E-01
    -13.997  0.0000E+00  0.2000E-01
    -13.931  0.0000E+00  0.2000E-01
    -13.864  0.0000E+00  0.2000E-01
    -13.798  0.0000E+00  0.2000E-01
    -13.731  0.0000E+00  0.2000E-01
    -13.665  0.0000E+00  0.2000E-01
    -13.598  0.0000E+00  0.2000E-01
    -13.531  0.0000E+00  0.2000E-01
    -13.465  0.0000E+00  0.2000E-01
    -13.398  0.0000E+00  0.2000E-01
    -13.332  0.0000E+00  0.2000E-01
    -13.265  0.0000E+00  0.2000E-01
    -13.199  0.0000E+00  0.2000E-01
    -13.132  0.0000E+00  0.2000E-01
    -13.066  0.0000E+00  0.2000E-01
    -12.999  0.0000E+00  0.2000E-01
    -12.932  0.0000E+00  0.2000E-01
    -12.866  0.0000E+00  0.2000E-01
    -12.799  0.0000E+00  0.2000E-01
    -12.733  0.0000E+00  0.2000E-01
    -12.666  0.0000E+00  0.2000E-01
    -12.600  0.0000E+00  0.2000E-01
    -12.533  0.0000E+00  0.2000E-01
    -12.467  0.0000E+00  0.2000E-01
    -12.400  0.0000E+00  0.2000E-01
    -12.333  0.0000E+00  0.2000E-01
    -12.267  0.0000E+00  0.2000E-01
    -12.200  0.0000E+00  0.2000E-01
    -12.134  0.0000E+00  0.2000E-01
    -12.067  0.0000E+00  0.2000E-01
    -12.001  0.0000E+00  0.2000E-01
    -11.934  0.0000E+00  0.2000E-01
    -11.868  0.0000E+00  0.2000E-01
    -11.801  0.0000E+00  0.2000E-01
    -11.734  0.0000E+00  0.2000E-01
    -11.668  0.0000E+00  0.2000E-01
    -11.601  0.0000E+00  0.2000E-01
    -11.535  0.0000E+00  0.2000E-01
    -11.468  0.0000E+00  0.2000E-01
    -11.402  0.0000E+00  0.2000E-01
    -11.335  0.0000E+00  0.2000E-01
    -11.269  0.0000E+00  0.2000E-01
    -11.202  0.0000E+00  0.2000E-01
    -11.135  0.0000E+00  0.2000E-01
    -11.069  0.0000E+00  0.2000E-01
    -11.002  0.0000E+00  0.2000E-01
    -10.936  0.0000E+00  0.2000E-01
    -10.869  0.0000E+00  0.2000E-01
    -10.803  0.0000E+00  0.2000E-01
    -10.736  0.0000E+00  0.2000E-01
    -10.670  0.0000E+00  0.2000E-01
    -10.603  0.0000E+00  0.2000E-01
    -10.537  0.0000E+00  0.2000E-01
    -10.470  0.0000E+00  0.2000E-01
    -10.403  0.0000E+00  0.2000E-01
    -10.337  0.0000E+00  0.2000E-01
    -10.270  0.0000E+00  0.2000E-01
    -10.204  0.0000E+00  0.2000E-01
    -10.137  0.0000E+00  0.2000E-01
    -10.071  0.0000E+00  0.2000E-01
    -10.004  0.0000E+00  0.2000E-01
     -9.938  0.0000E+00  0.2000E-01
     -9.871  0.0000E+00  0.2000E-01
     -9.804  0.0000E+00  0.2000E-01
     -9.738  0.0000E+00  0.2000E-01
     -9.671  0.0000E+00  0.2000E-01
     -9.605  0.0000E+00  0.2000E-01
     -9.538  0.0000E+00  0.2000E-01
     -9.472  0.0000E+00  0.2000E-01
     -9.405  0.0000E+00  0.2000E-01
     -9.339  0.0000E+00  0.2000E-01
     -9.272  0.0000E+00  0.8000E-01
     -9.205  0.0000E+00  0.8000E-01
     -9.139  0.0000E+00  0.8000E-01
     -9.072  0.0000E+00  0.8000E-01
     -9.006  0.0000E+00  0.8000E-01
     -8.939  0.0000E+00  0.8000E-01
     -8.873  0.0000E+00  0.8000E-01
     -8.806  0.0000E+00  0.8000E-01
     -8.740  0.0000E+00  0.8000E-01
     -8.673  0.0000E+00  0.8000E-01
     -8.606  0.0000E+00  0.8000E-01
     -8.540  0.0000E+00  0.8000E-01
     -8.473  0.0000E+00  0.8000E-01
     -8.407  0.0000E+00  0.8000E-01
     -8.340  0.0000E+00  0.8000E-01
     -8.274  0.0000E+00  0.8000E-01
     -8.207  0.0000E+00  0.8000E-01
     -8.141  0.0000E+00  0.8000E-01
     -8.074  0.0000E+00  0.8000E-01
     -8.007  0.0000E+00  0.8000E-01
     -7.941  0.0000E+00  0.8000E-01
     -7.874  0.0000E+00  0.8000E-01
     -7.808  0.0000E+00  0.8000E-01
     -7.741  0.0000E+00  0.8000E-01
     -7.675  0.0000E+00  0.8000E-01
     -7.608  0.0000E+00  0.8000E-01
     -7.542  0.0000E+00  0.8000E-01
     -7.475  0.0000E+00  0.8000E-01
     -7.408  0.0000E+00  0.8000E-01
     -7.342  0.0000E+00  0.8000E-01
     -7.275  0.0000E+00  0.8000E-01
     -7.209  0.0000E+00  0.8000E-01
     -7.142  0.0000E+00  0.8000E-01
     -7.076  0.0000E+00  0.8000E-01
     -7.009  0.0000E+00  0.8000E-01
     -6.943  0.0000E+00  0.8000E-01
     -6.876  0.0000E+00  0.8000E-01
     -6.809  0.0000E+00  0.8000E-01
     -6.743  0.0000E+00  0.8000E-01
     -6.676  0.0000E+00  0.8000E-01
     -6.610  0.0000E+00  0.8000E-01
     -6.543  0.0000E+00  0.8000E-01
     -6.477  0.0000E+00  0.8000E-01
     -6.410  0.0000E+00  0.8000E-01
     -6.344  0.0000E+00  0.8000E-01
     -6.277  0.0000E+00  0.8000E-01
     -6.210  0.0000E+00  0.8000E-01
     -6.144  0.0000E+00  0.8000E-01
     -6.077  0.0000E+00  0.8000E-01
     -6.011  0.0000E+00  0.8000E-01
     -5.944  0.0000E+00  0.8000E-01
     -5.878  0.0000E+00  0.8000E-01
     -5.811  0.0000E+00  0.8000E-01
     -5.745  0.0000E+00  0.8000E-01
     -5.678  0.0000E+00  0.8000E-01
     -5.611  0.0000E+00  0.8000E-01
     -5.545  0.0000E+00  0.8000E-01
     -5.478  0.0000E+00  0.8000E-01
     -5.412  0.0000E+00  0.8000E-01
     -5.345  0.0000E+00  0.8000E-01
     -5.279  0.0000E+00  0.8000E-01
     -5.212  0.0000E+00  0.8000E-01
     -5.146  0.0000E+00  0.8000E-01
     -5.079  0.0000E+00  0.8000E-01
     -5.012  0.0000E+00  0.8000E-01
     -4.946  0.0000E+00  0.8000E-01
     -4.879  0.0000E+00  0.8000E-01
     -4.813  0.0000E+00  0.8000E-01
     -4.746  0.0000E+00  0.8000E-01
     -4.680  0.0000E+00  0.8000E-01
     -4.613  0.0000E+00  0.8000E-01
     -4.547  0.0000E+00  0.8000E-01
     -4.480  0.0000E+00  0.8000E-01
     -4.413  0.0000E+00  0.8000E-01
     -4.347  0.0000E+00  0.8000E-01
     -4.280  0.0000E+00  0.8000E-01
     -4.214  0.0000E+00  0.8000E-01
     -4.147  0.0000E+00  0.8000E-01
     -4.081  0.0000E+00  0.8000E-01
     -4.014  0.0000E+00  0.8000E-01
     -3.948  0.0000E+00  0.8000E-01
     -3.881  0.0000E+00  0.8000E-01
     -3.814  0.0000E+00  0.8000E-01
     -3.748  0.0000E+00  0.8000E-01
     -3.681  0.0000E+00  0.8000E-01
     -3.615  0.0000E+00  0.8000E-01
     -3.548  0.0000E+00  0.8000E-01
     -3.482  0.0000E+00  0.8000E-01
     -3.415  0.0000E+00  0.8000E-01
     -3.349  0.0000E+00  0.8000E-01
     -3.282  0.0000E+00  0.8000E-01
     -3.215  0.0000E+00  0.8000E-01
     -3.149  0.0000E+00  0.8000E-01
     -3.082  0.0000E+00  0.8000E-01
     -3.016  0.0000E+00  0.8000E-01
     -2.949  0.0000E+00  0.8000E-01
     -2.883  0.0000E+00  0.8000E-01
     -2.816  0.0000E+00  0.8000E-01
     -2.750  0.0000E+00  0.8000E-01
     -2.683  0.0000E+00  0.8000E-01
     -2.616  0.0000E+00  0.8000E-01
     -2.550  0.0000E+00  0.8000E-01
     -2.483  0.0000E+00  0.8000E-01
     -2.417  0.0000E+00  0.8000E-01
     -2.350  0.0000E+00  0.8000E-01
     -2.284  0.0000E+00  0.8000E-01
     -2.217  0.0000E+00  0.8000E-01
     -2.151  0.0000E+00  0.8000E-01
     -2.084  0.0000E+00  0.8000E-01
     -2.017  0.0000E+00  0.8000E-01
     -1.951  0.0000E+00  0.8000E-01
     -1.884  0.0000E+00  0.8000E-01
     -1.818  0.0000E+00  0.8000E-01
     -1.751  0.0000E+00  0.8000E-01
     -1.685  0.0000E+00  0.8000E-01
     -1.618  0.0000E+00  0.8000E-01
     -1.552  0.0000E+00  0.8000E-01
     -1.485  0.0000E+00  0.8000E-01
     -1.418  0.0000E+00  0.8000E-01
     -1.352  0.0000E+00  0.8000E-01
     -1.285  0.0000E+00  0.8000E-01
     -1.219  0.0000E+00  0.8000E-01
     -1.152  0.0000E+00  0.8000E-01
     -1.086  0.0000E+00  0.8000E-01
     -1.019  0.0000E+00  0.8000E-01
     -0.953  0.0000E+00  0.8000E-01
     -0.886  0.0000E+00  0.8000E-01
     -0.819  0.0000E+00  0.8000E-01
     -0.753  0.0000E+00  0.8000E-01
     -0.686  0.0000E+00  0.8000E-01
     -0.620  0.0000E+00  0.8000E-01
     -0.553  0.0000E+00  0.8000E-01
     -0.487  0.0000E+00  0.8074E-01
     -0.420  0.0000E+00  0.8074E-01
     -0.354  0.0000E+00  0.8519E-01
     -0.287  0.1336E+00  0.9408E-01
     -0.220  0.0000E+00  0.9407E-01
     -0.154  0.0000E+00  0.1000E+00
     -0.087  0.0000E+00  0.1000E+00
     -0.021  0.0000E+00  0.1000E+00
      0.046  0.0000E+00  0.1000E+00
      0.112  0.0000E+00  0.1000E+00
      0.179  0.0000E+00  0.1000E+00
      0.245  0.0000E+00  0.1000E+00
      0.312  0.0000E+00  0.1000E+00
      0.379  0.0000E+00  0.1044E+00
      0.445  0.0000E+00  0.1133E+00
      0.512 -0.5185-117  0.1133E+00
      0.578  0.0000E+00  0.1281E+00
      0.645 -0.7882E-68  0.1281E+00
      0.711  0.0000E+00  0.1400E+00
      0.778  0.0000E+00  0.1400E+00
      0.844  0.0000E+00  0.1400E+00
      0.911  0.0000E+00  0.1400E+00
      0.978  0.0000E+00  0.1400E+00
      1.044 -0.6928E-06  0.1496E+00
      1.111  0.0000E+00  0.1511E+00
      1.177  0.0000E+00  0.1556E+00
      1.244  0.0000E+00  0.1556E+00
      1.310  0.0000E+00  0.1600E+00
      1.377  0.0000E+00  0.1600E+00
      1.443  0.0000E+00  0.1600E+00
      1.510  0.0000E+00  0.1600E+00
      1.577  0.0000E+00  0.1600E+00
      1.643  0.0000E+00  0.1600E+00
      1.710  0.0000E+00  0.1600E+00
      1.776  0.0000E+00  0.1600E+00
      1.843  0.0000E+00  0.1600E+00
      1.909  0.0000E+00  0.1600E+00
      1.976  0.0000E+00  0.1600E+00
      2.042  0.0000E+00  0.1600E+00
      2.109  0.0000E+00  0.1600E+00
      2.176  0.0000E+00  0.1600E+00
