    5    5  100    1
  0.2000000E+03  0.1000000E-08  0.1000000E-08  0.1000000E-08  0.5000000E-15
   1.0000000000000000E-004
  CAR 
 CH4                                     
      8      4      8

  0.3742002E-15  0.3742002E-15  0.3742002E-15  0.3703704E-01
    1      -16.883454   1.000000
    2       -9.288752   1.000000
    3       -9.288752   1.000000
    4       -9.288752   1.000000
    5       -0.527990   0.000000
    6        1.020294   0.000000
    7        1.045710   0.000000
    8        1.045710   0.000000

  0.3333333E+00  0.3742002E-15  0.3742002E-15  0.2222222E+00
    1      -16.883438   1.000000
    2       -9.288760   1.000000
    3       -9.288760   1.000000
    4       -9.288745   1.000000
    5       -0.406061   0.000000
    6        0.331510   0.000000
    7        1.157265   0.000000
    8        1.267983   0.000000

  0.3333333E+00  0.3333333E+00  0.3742002E-15  0.4444444E+00
    1      -16.883424   1.000000
    2       -9.288774   1.000000
    3       -9.288772   1.000000
    4       -9.288760   1.000000
    5       -0.288374   0.000000
    6        0.434201   0.000000
    7        0.519883   0.000000
    8        1.016089   0.000000

  0.3333333E+00  0.3333333E+00  0.3333333E+00  0.2962963E+00
    1      -16.883386   1.000000
    2       -9.288751   1.000000
    3       -9.288751   1.000000
    4       -9.288743   1.000000
    5       -0.174475   0.000000
    6        0.544406   0.000000
    7        0.651036   0.000000
    8        0.651036   0.000000
