       N       E                     dE             d eps       ncg     rms          rms(c)
DAV:   1    -0.240358238998E+02   -0.24036E+02   -0.38218E-06    72   0.109E-02    0.162E-03
DAV:   2    -0.240358237558E+02    0.14405E-06   -0.38309E-07   104   0.331E-03    0.377E-04
DAV:   3    -0.240358237298E+02    0.26015E-07   -0.40849E-08    72   0.113E-03    0.126E-04
DAV:   4    -0.240358237191E+02    0.10607E-07   -0.41588E-09    80   0.434E-04    0.121E-04
DAV:   5    -0.240358237216E+02   -0.24965E-08   -0.16875E-09    32   0.264E-04    0.179E-05
DAV:   6    -0.240358237289E+02   -0.72664E-08   -0.35804E-10    32   0.142E-04
   1 F= -.24035824E+02 E0= -.24035824E+02  d E =-.240358E+02
       N       E                     dE             d eps       ncg     rms          rms(c)
DAV:   1    -0.240359419798E+02   -0.11826E-03   -0.59607E-03    64   0.690E-01    0.422E-02
DAV:   2    -0.240358831592E+02    0.58821E-04   -0.15836E-04    80   0.806E-02    0.163E-02
DAV:   3    -0.240358802057E+02    0.29535E-05   -0.77417E-05    96   0.505E-02    0.655E-03
DAV:   4    -0.240358800780E+02    0.12776E-06   -0.65352E-08    80   0.244E-03    0.650E-03
DAV:   5    -0.240358809982E+02   -0.92018E-06   -0.28393E-07    72   0.330E-03    0.543E-03
DAV:   6    -0.240358812695E+02   -0.27138E-06   -0.91140E-06    64   0.182E-02
   2 F= -.24035881E+02 E0= -.24035881E+02  d E =-.575406E-04
       N       E                     dE             d eps       ncg     rms          rms(c)
DAV:   1    -0.240359150984E+02   -0.34100E-04   -0.77469E-04    64   0.247E-01    0.152E-02
DAV:   2    -0.240359069762E+02    0.81222E-05   -0.20778E-05    80   0.302E-02    0.589E-03
DAV:   3    -0.240359061160E+02    0.86017E-06   -0.10206E-05    88   0.184E-02    0.241E-03
DAV:   4    -0.240359060506E+02    0.65481E-07   -0.11895E-08    72   0.109E-03    0.243E-03
DAV:   5    -0.240359059978E+02    0.52737E-07   -0.35370E-07    56   0.321E-03    0.183E-03
DAV:   6    -0.240359059363E+02    0.61481E-07   -0.10214E-07    80   0.216E-03
   3 F= -.24035906E+02 E0= -.24035906E+02  d E =-.822074E-04
