CH4                                     
           1
    10.000000    0.000000    0.000000
     0.000000   10.000000    0.000000
     0.000000    0.000000   10.000000
   C    H 
   1   4
Direct configuration=     1
   0.50000000  0.50000000  0.50000000
   0.43665415  0.43665415  0.43665415
   0.56334585  0.56334585  0.43665415
   0.43665415  0.56334585  0.56334585
   0.56334585  0.43665415  0.56334585
Direct configuration=     2
   0.50000000  0.50000000  0.50000000
   0.43675398  0.43675398  0.43675398
   0.56324602  0.56324602  0.43675398
   0.43675398  0.56324602  0.56324602
   0.56324602  0.43675398  0.56324602
Direct configuration=     3
   0.50000000  0.50000000  0.50000000
   0.43671821  0.43671821  0.43671821
   0.56328179  0.56328179  0.43671821
   0.43671821  0.56328179  0.56328179
   0.56328179  0.43671821  0.56328179
